% Model:              ModalMasses.mph
% Version:            COMSOL 6.1.0.282
% Date:               Apr 4 2023, 12:42
% Table:              Table 2 - Point Evaluation 1 (solid.disp)
% Eigenfrequency         Displacement field, X component (m), Point: 19Displacement field, X component (m), Point: 21Displacement field, X component (m), Point: 47Displacement field, X component (m), Point: 75Displacement field, X component (m), Point: 77
0.0012665737304403957    -1.9726236777248323      -1.972623677725289       -1.9726236777247217      -1.9726236777248356      -1.9726236777252844
596.1404201815521        3.815012392656959E-5     1.6180926197399448E-4    -2.9406873487280396E-6   2.0598598972480808E-5    1.3963955730156763E-4
755.1766682033399        -0.005597060300958684    -0.34299580086167647     0.08374111159950698      -0.005597282766294712    -0.3429960492483089
1150.8830821719037       5.219299079192964E-5     -1.784816631332719E-5    1.5315398629779198E-4    2.1854043744760966E-4    1.585141133281322E-4
1459.802997473669        2.1024102763690357E-4    -3.9465908075529086E-4   -1.0142440031382406E-4   -3.827516201816629E-4    3.179508721395017E-4
1684.5153321488124       0.2371859661710484       0.7142110021125371       0.1107353965874685       0.23718593400865493      0.7142114945376121
1868.0699577334933       4.4789141356110307E-4    1.0359793957635455E-4    3.071922200539901E-4     -2.3707005011731537E-5   -4.0519338563640636E-4
2039.2180168219559       0.7080983956165          0.5417447283624575       0.7518768653146413       0.7080981165543014       0.5417452257377011
2468.4848094528775       0.0032693342970429515    -4.197291935973545E-4    -7.458508564553837E-5    -0.0033446125981310484   4.824298332192838E-4
2587.470043483654        3.39876772537961E-4      0.0054461258035033615    0.0014128108423775106    0.0023959657952030435    -0.002892069377938023
2815.69023169962         2.216498456261205        2.492520773836519        2.1414785900126097       2.21649670437004         2.492522584622924
3682.4828886605756       -0.002905654789006       0.0011577248537724078    -3.153076827587002E-4    0.0025875630799060754    -1.4960648820968429E-4
3835.9919523827193       0.24939348009948886      -0.5562023097163558      0.4628582733457777       0.2493996164084483       -0.556204683909578
4995.216478482978        3.466722768945753        3.2765828355671567       3.508601530957576        3.4667161408677996       3.2765754645583147
5329.836926056347        -0.17972681887583097     1.9148991109770148       -0.7364048271400978      -0.179723019378821       1.9148890231794393
5418.998650544558        -0.0031348361036059257   0.0033179101135998755    -0.0070988486796023315   -0.005700328229545877    0.0079894762370107
5492.296095874825        -1.4509347357706754E-4   -0.004648694795750731    0.0017810393297631203    0.0012680399086451588    -0.0033855904228210832
6898.979193509237        1.6475636371149356       -0.722269880776193       2.272181782536153        1.647583712976498        -0.7222707213093312
6983.188064546653        0.010574292483293304     0.01176984958723334      0.0016254398973800826    -0.007984370506097       -0.01170804012340854
7324.986615090169        -0.047545497508251       -0.0029262395116721063   -0.05452472318606302     -0.03996765328330611     -0.0020769930673371208
