% Model:              ModalMasses.mph
% Version:            COMSOL 6.1.0.282
% Date:               Apr 4 2023, 12:43
% Table:              Table 3 - Point Evaluation 2 (w)
% Eigenfrequency         Displacement field, Z component (m), Point: 19Displacement field, Z component (m), Point: 21Displacement field, Z component (m), Point: 47Displacement field, Z component (m), Point: 75Displacement field, Z component (m), Point: 77
0.0012665737304403957    0.3287706129545353       0.3287706129555126       1.268245753689492E-15    -0.3287706129540111      -0.3287706129529991
596.1404201815521        -0.030539396396061524    0.03800414503646133      -0.04868673193718572     -0.030532037983019608    0.038011346806811196
755.1766682033399        -0.00791479415642624     -0.008335527053814755    1.0286395351405591E-4    0.008032320480053158     0.008123221179567028
1150.8830821719037       0.01419537253625457      -0.36450132227108367     0.11432305746801694      0.014203391511801182     -0.36449317243561025
1459.802997473669        -0.3666330550881868      1.0327075961270094       -0.7375158955879628      -0.3666836754717993      1.0326566674880575
1684.5153321488124       -0.03966411062060301     -0.03741660299686295     -5.332873794547606E-4    0.03914229015712877      0.038941292787543054
1868.0699577334933       0.05795535312520006      0.4921521306731967       -0.05643539003725485     0.058048115352799357     0.49224718522308697
2039.2180168219559       -0.09179526092097909     -0.09167216968656125     -3.9747879547170613E-4   0.0912706044385799       0.09216391191749067
2468.4848094528775       -1.7678944108251788      4.90305539361661         -3.5328262935609596      -1.7681979646386923      4.90275237380075
2587.470043483654        3.557887734755266        -5.355325589022266       5.925329304727864        3.5584615936931523       -5.354747114404524
2815.69023169962         -0.24393490909363272     -0.23845316429220428     -0.001870482533353178    0.2415973528725795       0.2413712686055664
3682.4828886605756       2.1510149875476166       -3.0783942706539316      3.5360584949063454       2.1512501722196657       -3.078173196959898
3835.9919523827193       -8.379404124358615E-4    -0.014014837387462767    0.003349895690145003     0.0052292180348991815    0.009717408571540827
4995.216478482978        -0.6831623017655518      -0.6808649981650755      -4.2676569567627853E-4   0.6829433393962344       0.6829799186669161
5329.836926056347        -0.10829364755912368     -0.07404731137136632     0.008136160263958364     0.11872322581030843      0.062376315852903
5418.998650544558        -0.27346293867396776     2.6398837790754994       -1.0478506255547468      -0.27447912353322734     2.638422612950895
5492.296095874825        1.7786347839632302       1.7389650343107843       1.7900899112230122       1.7781653126457655       1.7386988695240508
6898.979193509237        -0.2400915059355858      -0.3192314049684737      -0.0031527243486744612   0.23573849832861696      0.3222744983198216
6983.188064546653        1.301586838488288        -0.22085225745490566     1.7348755978164883       1.3021545508653354       -0.22017816370911905
7324.986615090169        1.1379100062868162       -1.80337085905485        1.9070453144766604       1.119960674817905        -1.8245512015074528
