% Model:              ModalMasses.mph
% Version:            COMSOL 6.1.0.282
% Date:               Apr 4 2023, 12:43
% Table:              Table 3 - Point Evaluation 2 (w)
% Eigenfrequency         Displacement field, Y-component (m), Point: 19Displacement field, Y-component (m), Point: 21Displacement field, Y-component (m), Point: 47Displacement field, Y-component (m), Point: 75Displacement field, Y-component (m), Point: 77
0.0012665737304403957    -2.1900100788394515E-13  -2.210955070415246E-13   2.3688505157197273E-13   6.830080360773336E-13    6.919244935519E-13
596.1404201815521        1.5835654888432094       1.5835775312799039       1.583458730896083        1.5833256359728038       1.58333766373014
755.1766682033399        -0.3337774669898051      -0.3337821577911374      -2.701572347640074E-4    0.3332369676908046       0.33324170018742816
1150.8830821719037       -1.2079912296469666      -1.20803570943176        -1.2079355523479265      -1.207862523413481       -1.2079069307294195
1459.802997473669        4.426655007238039        4.426818213919662        4.427485054911387        4.426560316173167        4.426725227394741
1684.5153321488124       0.47389282693908524      0.473924882257523        0.0019295603849353723    -0.47003327222729446     -0.4700653555940955
1868.0699577334933       0.667486119461225        0.6675741856552722       0.6677816446684979       0.6682038792168141       0.6682917698112912
2039.2180168219559       -0.16334967008438178     -0.1633416812906151      0.0013004851802685847    0.16594797637325104      0.1659410225059433
2468.4848094528775       10.303527489447603       10.304894763511603       10.30805236633287        10.303388350949268       10.304763663336304
2587.470043483654        -12.95832196320506       -12.959624623602505      -12.966429317282318      -12.958148326683661      -12.959463242129422
2815.69023169962         0.2771853208758926       0.2773710380148452       0.0035233785642392094    -0.2701458728544666      -0.2703266597158628
3682.4828886605756       -4.922833757718215       -4.924171279134933       -4.928337991125857       -4.924152649163353       -4.925496121833175
3835.9919523827193       -0.8042901241785563      -0.804513412658485       -0.00392153721975065     0.7964436824703904       0.7966674164765154
4995.216478482978        -0.18838381276626673     -0.18795650807251557     0.0010528460241234544    0.19046194289202506      0.19005698651746128
5329.836926056347        2.08362392106731         2.0848229340792863       -0.00800510550922831     -2.099534611180849       -2.1007505257347234
5418.998650544558        1.941956813214974        1.9431619015810224       1.9367453595109823       1.9218344574470145       1.923034350302729
5492.296095874825        -0.23062064158357287     -0.23030048448769677     -0.22724490431424277     -0.22148298083437024     -0.22115743435001992
6898.979193509237        -2.3809954751541036      -2.382972508723303       0.0021103289813487877    2.385068665293601        2.387079247466151
6983.188064546653        -0.8565491233567893      -0.8554405633840669      -0.8646963224804551      -0.8540411789014811      -0.8529370936334506
7324.986615090169        -1.436340601504611       -1.4380870413033433      -1.4828632123739323      -1.5195294171922864      -1.5213491124989371
