% Model:              ModalMasses.mph
% Version:            COMSOL 6.1.0.282
% Date:               Apr 4 2023, 12:44
% Table:              Table 2 - Point Evaluation 1 (solid.disp)
% Eigenfrequency         Displacement field, X component (m), Point: 25Displacement field, X component (m), Point: 32
0.0012665737304403957    2.43290253586024         2.0383778003155375
596.1404201815521        1.0503961410804885E-4    -2.0407114270044676E-5
755.1766682033399        0.8271057373766542       0.7901747006218558
1150.8830821719037       7.105706275961253E-4     -4.1996269368454277E-4
1459.802997473669        -0.0013393239290548464   -8.174716491407518E-4
1684.5153321488124       4.037064718950214        2.564632581641837
1868.0699577334933       0.0029738176219586783    -0.0012889734572082753
2039.2180168219559       6.4342095350727675       2.8850542778067525
2468.4848094528775       -2.901207099966137E-4    1.6704905940568508E-4
2587.470043483654        6.342127635803099E-4     8.789698261361994E-4
2815.69023169962         -2.0725853269915024      0.006727684314410207
3682.4828886605756       2.847664315806962E-4     -0.0028167190477179226
3835.9919523827193       -1.6623702133395288      1.8441172691452508
4995.216478482978        0.39669669549353015      -0.9358524824305707
5329.836926056347        -0.5667813509603581      1.8976967653161294
5418.998650544558        -0.0026807724744882205   0.010726193876597491
5492.296095874825        0.003909197338180504     0.0015354681227011454
6898.979193509237        -0.12046969007074357     0.509483072436689
6983.188064546653        -5.086545812528395E-4    -3.727118896407283E-4
7324.986615090169        0.008597162069686708     -0.02705301200415109
